{
  "total_papers": 215,
  "keyword_source_distribution": {
    "bibtex_only": 0,
    "pdf_only": 11,
    "both_sources": 204,
    "no_keywords": 0
  },
  "keyword_counts": {
    "total_bibtex_keywords": 428,
    "total_pdf_keywords": 6138,
    "total_integrated_keywords": 6168,
    "unique_integrated_keywords": 1507
  },
  "abstract_statistics": {
    "papers_with_abstracts": 149,
    "papers_with_meaningful_abstracts": 149,
    "average_abstract_length": 1488.6510067114093
  },
  "top_keywords": [
    [
      "soc",
      162
    ],
    [
      "electric vehicle",
      155
    ],
    [
      "optimization",
      134
    ],
    [
      "machine learning",
      124
    ],
    [
      "neural network",
      117
    ],
    [
      "battery",
      113
    ],
    [
      "energy",
      91
    ],
    [
      "model",
      86
    ],
    [
      "learning",
      85
    ],
    [
      "data",
      83
    ],
    [
      "reinforcement learning",
      80
    ],
    [
      "energy storage",
      79
    ],
    [
      "artificial intelligence",
      78
    ],
    [
      "charging",
      70
    ],
    [
      "state of charge",
      65
    ],
    [
      "power",
      63
    ],
    [
      "energy management",
      63
    ],
    [
      "electrode",
      59
    ],
    [
      "time",
      53
    ],
    [
      "cid",
      52
    ],
    [
      "deep learning",
      50
    ],
    [
      "charging station",
      48
    ],
    [
      "electric",
      48
    ],
    [
      "electrolyte",
      46
    ],
    [
      "battery capacity",
      45
    ],
    [
      "control",
      44
    ],
    [
      "lstm",
      44
    ],
    [
      "evs",
      43
    ],
    [
      "iot",
      39
    ],
    [
      "lithium-ion battery",
      39
    ],
    [
      "smart grid",
      39
    ],
    [
      "soh",
      38
    ],
    [
      "cathode",
      37
    ],
    [
      "state",
      37
    ],
    [
      "renewable energy",
      36
    ],
    [
      "vehicle",
      36
    ],
    [
      "rnn",
      35
    ],
    [
      "cid cid",
      34
    ],
    [
      "management",
      33
    ],
    [
      "bms",
      31
    ],
    [
      "machine",
      31
    ],
    [
      "network",
      29
    ],
    [
      "batteries",
      29
    ],
    [
      "anode",
      29
    ],
    [
      "grid",
      29
    ],
    [
      "voltage",
      28
    ],
    [
      "cnn",
      27
    ],
    [
      "vehicles",
      27
    ],
    [
      "proposed",
      27
    ],
    [
      "state of health",
      26
    ]
  ],
  "keyword_frequencies": {
    "anewformulationandsolutionofprobabilisticcon": 1,
    "constrained": 2,
    "constraints": 2,
    "control": 44,
    "electric vehicle": 155,
    "flow": 6,
    "load": 14,
    "load flow": 1,
    "number": 10,
    "optimization": 134,
    "pclf": 1,
    "period": 3,
    "planning": 2,
    "plug": 3,
    "power": 63,
    "problem": 13,
    "satisfying": 1,
    "settings": 1,
    "strainedloadflow": 1,
    "time": 53,
    "transformer": 15,
    "variables": 7,
    "whole": 1,
    "wind": 4,
    "algorithm": 20,
    "algorithms": 6,
    "artificial intelligence": 78,
    "battery": 113,
    "battery management system": 25,
    "bms": 31,
    "cid": 52,
    "cid cid": 34,
    "convolutional neural network": 20,
    "data": 83,
    "deep learning": 50,
    "electric car": 19,
    "layer": 8,
    "learning": 85,
    "machine": 31,
    "machine learning": 124,
    "model": 86,
    "network": 29,
    "neural": 13,
    "neural network": 117,
    "output": 9,
    "soc": 162,
    "soh": 38,
    "specific": 1,
    "state of charge": 65,
    "state of health": 26,
    "training": 9,
    "agent": 13,
    "atthesametime": 1,
    "charging": 70,
    "charging station": 48,
    "drivers": 2,
    "fast charging": 24,
    "hailingplatforms": 1,
    "mfhrl": 1,
    "mostofthetaxidrivershavebecomeusersoftherelocationrecommendationserviceofferedbyonlineride": 1,
    "multi": 10,
    "nowadays": 1,
    "recommendation": 3,
    "reinforcement": 12,
    "reinforcement learning": 80,
    "relocation": 1,
    "station": 9,
    "taxi": 1,
    "taxi drivers": 1,
    "taxidrivers": 1,
    "taxidrivers userexperience": 1,
    "taxis": 1,
    "uberanddidichuxing": 1,
    "userexperience": 1,
    "whichcouldoftentimesleaddriverstoplaceswithprofitableorders": 1,
    "electrode": 59,
    "electrolyte": 46,
    "electrolyte infiltration": 1,
    "electrolyte infiltration is one of the critical steps of the manufacturing process of lithium ion batteries (lib). we": 1,
    "france": 2,
    "infiltration": 1,
    "lbm": 2,
    "nmc": 15,
    "one": 6,
    "pore": 2,
    "process": 21,
    "resolved": 1,
    "simulations": 1,
    "batteries": 29,
    "battery capacity": 45,
    "boost": 2,
    "chargers": 1,
    "cnn": 27,
    "converter": 5,
    "current": 18,
    "electric": 48,
    "energy": 91,
    "energy storage": 79,
    "evs": 43,
    "lstm": 44,
    "ripple": 2,
    "rnn": 35,
    "used": 25,
    "battery swapping": 5,
    "batteryswappingisbecomingapromising": 1,
    "bss": 5,
    "china": 4,
    "com": 3,
    "constant": 1,
    "electricity": 8,
    "energy management": 63,
    "max": 3,
    "scale": 3,
    "scheduling": 12,
    "v2g": 22,
    "variable": 1,
    "withtherapidincreaseofinthenumberofelectricvehicle(ev)": 1,
    "𝑆𝑂𝐶": 2,
    "active": 2,
    "active material": 1,
    "anode": 29,
    "carbon": 6,
    "cathode": 37,
    "conductive": 1,
    "electrodes": 8,
    "electrospun": 1,
    "fiber": 1,
    "fibers": 1,
    "fig": 12,
    "germany": 2,
    "lifepo4": 5,
    "material": 7,
    "materials": 15,
    "polymer": 1,
    "separator": 21,
    "use": 16,
    "battery management": 2,
    "battery thermal management": 3,
    "cell": 16,
    "cooling": 4,
    "heat": 3,
    "ion": 24,
    "iot": 39,
    "life": 8,
    "lithium-ion battery": 39,
    "management": 33,
    "management bms": 1,
    "pack": 5,
    "state": 37,
    "thermal": 5,
    "vehicles": 27,
    "voltage": 28,
    "could": 3,
    "high": 26,
    "mass": 3,
    "mno": 1,
    "mno nanosheets": 1,
    "nanosheets": 1,
    "performance": 19,
    "redox": 2,
    "slurry": 4,
    "charging coordination": 1,
    "coordination": 1,
    "governments are currently subsidizing growth in the electric car market and the associated infrastructure": 1,
    "grid": 29,
    "renewable energy": 36,
    "smart": 16,
    "smart charging": 2,
    "smart grid": 39,
    "vehicle-to-grid": 20,
    "agents": 3,
    "cost": 14,
    "day": 4,
    "discharging": 6,
    "federated learning": 9,
    "peak": 3,
    "peak load": 1,
    "shaving": 1,
    "work": 5,
    "battery degradation": 26,
    "cloud": 4,
    "computing": 4,
    "consumer": 2,
    "degradation": 7,
    "demand": 19,
    "devices": 7,
    "edge": 3,
    "esm": 1,
    "ess": 2,
    "profit": 2,
    "proposed": 27,
    "renewable": 9,
    "storage": 9,
    "advantage": 1,
    "charging discharging": 3,
    "cmdp": 1,
    "constraint": 1,
    "departure": 1,
    "function": 9,
    "however": 23,
    "price": 6,
    "varying": 1,
    "development": 1,
    "electrochemical": 7,
    "electrochemical energy": 1,
    "feature": 8,
    "therefore": 2,
    "thus": 4,
    "actions": 2,
    "fuel": 9,
    "phev": 12,
    "phevs": 4,
    "plug-in hybrid": 15,
    "bppt": 1,
    "central": 1,
    "collected": 1,
    "consumption": 7,
    "energy consumption": 2,
    "ensemble learning": 8,
    "evcs": 4,
    "historical": 1,
    "indonesia": 1,
    "sustainability": 22,
    "svm": 4,
    "transaction": 3,
    "weather": 1,
    "air": 4,
    "btms": 1,
    "cooled": 1,
    "cooled btms": 1,
    "hpacs": 1,
    "in this paper": 2,
    "liquid": 1,
    "liquid cooled": 1,
    "svr": 1,
    "temperature": 10,
    "the coupling system of liquid-cooled battery thermal management system (btms) and heat pump": 1,
    "calendering": 13,
    "distribution": 8,
    "eff": 1,
    "fast": 3,
    "lithium": 19,
    "lithium iron phosphate": 6,
    "lithium-ion": 22,
    "parameters": 11,
    "pce": 1,
    "pet": 1,
    "pet model": 1,
    "porous": 1,
    "action": 10,
    "bcss": 1,
    "charging swapping": 1,
    "coordinated": 3,
    "decision": 3,
    "environment": 4,
    "governance": 1,
    "mode": 2,
    "models": 16,
    "service": 4,
    "swapping": 2,
    "urban": 2,
    "among": 2,
    "communication": 2,
    "connectivity": 1,
    "delivery": 1,
    "great": 2,
    "information": 7,
    "local": 3,
    "locations": 1,
    "mec": 1,
    "mobile": 3,
    "navigation": 2,
    "operations": 1,
    "stopping": 1,
    "two": 5,
    "vanets": 1,
    "vehicle": 36,
    "assignment": 1,
    "centaur": 1,
    "charging stations": 6,
    "doi": 1,
    "infrastructure": 3,
    "optimal": 10,
    "public": 2,
    "reading": 1,
    "scheme": 3,
    "solve": 1,
    "stations": 11,
    "total": 2,
    "transportation": 3,
    "aggregator": 2,
    "ahead": 1,
    "belgium": 1,
    "charging parameters": 1,
    "day ahead": 1,
    "fleet": 2,
    "market": 2,
    "plan": 1,
    "prices": 1,
    "set": 8,
    "set charging": 1,
    "components": 3,
    "detection": 9,
    "different": 10,
    "internet of things": 14,
    "order": 3,
    "security": 3,
    "wireless charging": 2,
    "aging": 3,
    "artificial": 8,
    "calendar": 2,
    "cells": 5,
    "charge": 12,
    "charged": 1,
    "estimation": 16,
    "fully": 1,
    "blockchain": 3,
    "byleveragingthecharginganddischargingcapabili": 1,
    "cities": 1,
    "computational": 2,
    "computational intelligence": 1,
    "consortium": 1,
    "contract": 1,
    "energy trading": 1,
    "implemented": 1,
    "implemented smart": 1,
    "intelligence": 4,
    "ioev": 1,
    "smart cities": 1,
    "specifically": 1,
    "trading": 2,
    "accuracy": 2,
    "forest": 1,
    "india": 4,
    "machinelearning": 3,
    "org": 3,
    "predict": 2,
    "prediction": 9,
    "publishedbyelsevierltd": 1,
    "random": 2,
    "residualenergy": 1,
    "rul": 2,
    "thisisanopenaccessarticleundertheccbylicense": 1,
    "company": 1,
    "energy transition": 1,
    "gas": 1,
    "journey": 1,
    "offshore": 1,
    "offshore wind": 1,
    "oil": 2,
    "orsted": 1,
    "report": 1,
    "transition": 1,
    "battery manufacturing": 9,
    "battery production": 14,
    "electroactive": 1,
    "libs": 3,
    "path": 1,
    "processes": 6,
    "recycling": 4,
    "regeneration": 1,
    "sorting": 1,
    "spent": 2,
    "appliances": 3,
    "automated": 1,
    "effective": 1,
    "essentialforsmartgridapproachestodemandresponse": 1,
    "home": 4,
    "isamultiobjectiveadaptivecontrolproblembecauseitbalancesan": 1,
    "nomenclature": 1,
    "objective": 2,
    "objectives": 1,
    "smart home": 2,
    "better": 1,
    "csos": 1,
    "federated": 3,
    "manage": 1,
    "occupancy": 1,
    "server": 2,
    "significant": 1,
    "aneffectivelithium": 1,
    "cutting": 2,
    "disassembly": 1,
    "eol": 1,
    "etal": 1,
    "ionbattery": 1,
    "lib": 4,
    "lithium-ionbattery·batterydismantling·batteryrecycling·machinelearning·onlinesensing": 1,
    "ofwastelibsandthesustainabilityofcriticalelementsforproducinglibcomponents": 1,
    "quality control": 4,
    "recyclinginfrastructureisofgreatimportancetoalleviatetheconcernsoverthedisposal": 1,
    "solution": 2,
    "theend": 1,
    "cell battery": 1,
    "deep": 13,
    "ems": 8,
    "fuel cell": 3,
    "hybrid": 13,
    "vehiclesusingasinglefuelcellasapowersourceoftenhaveproblemssuchasslowresponseandinabilityto": 1,
    "capacity": 15,
    "cycle": 5,
    "dataset": 6,
    "discharge": 4,
    "drx": 1,
    "profiles": 1,
    "rate": 5,
    "test": 2,
    "agc": 1,
    "area": 3,
    "asthepenetrationrateofnewenergies": 1,
    "energystor": 1,
    "frequency": 6,
    "frequency control": 1,
    "grids": 1,
    "sarsa": 2,
    "strategies": 3,
    "target": 3,
    "adversarial": 1,
    "adversarial attacks": 1,
    "annealing": 1,
    "attack": 6,
    "attacks": 4,
    "battery health": 2,
    "health": 7,
    "health monitoring": 1,
    "monitoring": 5,
    "qboost": 1,
    "quantum": 2,
    "quantum annealing": 1,
    "results": 2,
    "also": 6,
    "demandresponse": 1,
    "dense": 1,
    "device": 4,
    "marla": 1,
    "potentialpowerrequests": 1,
    "q-learning": 1,
    "reinforcementlearning": 1,
    "requested": 1,
    "resultinginnon": 1,
    "reward": 8,
    "sarsa(stateaction": 1,
    "slot": 2,
    "slots": 1,
    "smartgrid": 1,
    "state action": 1,
    "thepopulationissharplygrowinginthelastdecade": 1,
    "des": 1,
    "dess": 1,
    "leaching": 1,
    "metal": 2,
    "solubility": 1,
    "structure": 4,
    "supervised learning": 16,
    "view": 1,
    "xgboost": 1,
    "actor": 1,
    "actor critic": 1,
    "charging problem": 1,
    "critic": 1,
    "future": 3,
    "future information": 1,
    "online": 6,
    "aip": 1,
    "cost minimization": 1,
    "electric vehicle in hybrid": 1,
    "emissions": 1,
    "genetic algorithm": 1,
    "hev": 1,
    "hevs": 1,
    "climate": 1,
    "cold": 2,
    "conditions": 4,
    "engine": 1,
    "item": 1,
    "powertrain": 2,
    "real": 15,
    "saving": 2,
    "𝐼𝐶𝐸": 1,
    "hence": 1,
    "maintenance": 2,
    "operation": 4,
    "recent": 1,
    "unit": 1,
    "various": 3,
    "controller": 2,
    "eess": 1,
    "eesss": 1,
    "inertia": 1,
    "policy": 9,
    "response": 1,
    "rotational": 1,
    "value": 7,
    "attimeslott": 1,
    "costs": 1,
    "duce": 1,
    "end": 3,
    "energymanagementinthesmarthomecanhelpre": 1,
    "ini": 1,
    "isi": 1,
    "powerconsumptionofs": 1,
    "psi": 1,
    "residential": 1,
    "sschedulingwindow": 1,
    "tsi": 1,
    "user": 4,
    "classification": 3,
    "fault": 6,
    "fault classification": 1,
    "faults": 2,
    "features": 7,
    "inverter": 1,
    "micro": 1,
    "micro grid": 1,
    "aoa": 1,
    "archimedes": 1,
    "arima": 1,
    "electricvehicles": 1,
    "genetic": 1,
    "hag": 1,
    "introduced": 1,
    "termmemory": 1,
    "coating process": 5,
    "electrode manufacturing": 6,
    "final": 1,
    "li-ion battery": 23,
    "li-ion battery is one of the key players in energy storage technology empowering electrified and clean trans-": 1,
    "manufacturing": 10,
    "nickel manganese cobalt": 2,
    "quality": 6,
    "via": 2,
    "drl": 7,
    "forabatteryswappingstation": 1,
    "larger": 2,
    "operating": 1,
    "thestochastic": 1,
    "characteristics": 4,
    "due": 4,
    "hybrid supercapacitor": 1,
    "lead": 1,
    "lead vanadate": 1,
    "properties": 7,
    "supercapacitor": 2,
    "supercapacitors": 1,
    "the structural and chemical architecture of the active electrode material must provide an optimum environment": 1,
    "vanadate": 1,
    "dis": 1,
    "ergy": 2,
    "human": 1,
    "pev": 5,
    "shenzhen": 2,
    "tcls": 1,
    "ther": 1,
    "tset": 1,
    "computer": 1,
    "electrical": 3,
    "electrical computer": 1,
    "long": 1,
    "marquette": 1,
    "pev charging": 1,
    "pevs": 2,
    "reduce": 2,
    "term": 1,
    "estimate": 1,
    "low": 3,
    "drive": 1,
    "fpc": 1,
    "fuzzy": 2,
    "optimal power": 1,
    "power sources": 1,
    "simulation": 3,
    "sources": 2,
    "vehicle power": 1,
    "another": 1,
    "calibration": 1,
    "charging pile": 1,
    "error": 4,
    "field": 1,
    "message": 1,
    "metrology": 1,
    "pile": 1,
    "piles": 1,
    "relies": 1,
    "standard": 1,
    "standard device": 1,
    "workload": 1,
    "all-solid-state batteries": 1,
    "asslmbs": 1,
    "conductivity": 2,
    "figure": 1,
    "halide": 1,
    "interfacial": 1,
    "layered": 1,
    "layered halide electrolytes": 1,
    "li metal anode compatibility": 1,
    "lzrc": 1,
    "nanolett": 1,
    "potential": 2,
    "ses": 2,
    "solid": 2,
    "stability": 1,
    "zrcl": 1,
    "adoption": 3,
    "august": 1,
    "bems": 1,
    "bgru": 1,
    "increasing": 2,
    "june": 3,
    "learning model aimed at predicting the charging needs of electric vehicles. the": 1,
    "proliferation": 1,
    "rapid": 2,
    "received": 1,
    "back": 1,
    "drives": 1,
    "estimator": 1,
    "nns": 1,
    "novel": 1,
    "position": 1,
    "position estimator": 1,
    "reasons": 1,
    "rotor": 1,
    "rotor position": 1,
    "section": 4,
    "speed": 4,
    "valeo": 1,
    "autonomous": 4,
    "dqn": 3,
    "generation": 5,
    "ageing": 1,
    "cell assembly": 4,
    "lifetime": 2,
    "manufacturing management": 1,
    "solutions": 1,
    "continuous": 1,
    "electric vehicles driven by batteries are a key part of a sustainable mobility sector. unfortunately": 1,
    "modeling": 3,
    "product": 2,
    "production": 11,
    "production line": 3,
    "charging scheduling": 1,
    "fluctuations": 1,
    "within": 2,
    "access": 2,
    "drying": 2,
    "formulation": 1,
    "formulation manufacturing": 1,
    "graphite": 3,
    "mixing": 1,
    "open": 3,
    "balance": 1,
    "demand side": 1,
    "framework": 5,
    "group": 2,
    "hours": 2,
    "side": 2,
    "supply": 5,
    "classifier": 1,
    "duration": 1,
    "eeg": 1,
    "emg": 1,
    "imperative": 1,
    "optimal health": 1,
    "samples": 1,
    "sleep": 1,
    "studies": 1,
    "vigilance": 1,
    "air pollution": 1,
    "machines": 1,
    "microcontroller": 2,
    "pollution": 2,
    "sensor": 2,
    "sensors": 2,
    "soc battery": 1,
    "world": 1,
    "bigru": 1,
    "curves": 2,
    "ity estimation method grounded in field data. the proposed approach begins by determining labeled": 1,
    "methods": 11,
    "packs": 1,
    "cobalt": 1,
    "copper": 1,
    "deposits": 1,
    "kobold": 1,
    "metals": 1,
    "minerals": 1,
    "mining": 1,
    "nickel": 1,
    "ore": 1,
    "ore deposits": 1,
    "thousands": 1,
    "adaptive": 2,
    "committed": 1,
    "cyber-physical system": 7,
    "deviations": 1,
    "disturbance": 1,
    "dos": 1,
    "dos attacks": 1,
    "frc": 1,
    "irl": 1,
    "amrita": 1,
    "bayes": 2,
    "converters": 2,
    "level": 5,
    "unsupervised learning": 8,
    "density": 2,
    "design": 6,
    "electrode wetting is a critical step in the lithium-ion battery manufacturing process. the injection of electrolyte": 1,
    "saturation": 1,
    "wettability": 1,
    "interference": 1,
    "irs": 1,
    "strategy": 6,
    "wireless": 1,
    "wpt": 1,
    "available": 3,
    "institute": 1,
    "techniques": 5,
    "terminal": 1,
    "vellore": 1,
    "adaptive control": 1,
    "artificial intelligence (ai)": 1,
    "battery aging": 10,
    "battery management system (bms)": 1,
    "electric vehicles (ev)": 1,
    "proposes": 2,
    "traditional": 1,
    "anomaly detection": 2,
    "capacity fade": 1,
    "class": 2,
    "cycles": 3,
    "fade": 2,
    "lot": 1,
    "lots": 2,
    "sei": 1,
    "sei layer": 1,
    "testing": 1,
    "we propose an energy management strategy based on deep reinforcement learning for a": 1,
    "captured": 1,
    "data values": 1,
    "electronicdevices": 1,
    "enabled": 1,
    "every": 1,
    "fusion": 1,
    "informationfusionisamongthecrucialproblemsandprobablyoccursduetothedensedeployment": 1,
    "intheinternetofthings": 1,
    "intheliterature": 1,
    "mean": 3,
    "module": 2,
    "neighborhood": 1,
    "ofconsumerelectronicdevices": 1,
    "tunerawdata": 1,
    "values": 3,
    "variousmethodologieshavebeendevelopedtofine": 1,
    "bsss": 1,
    "ffrs": 1,
    "hour": 2,
    "ideal": 1,
    "kwh": 2,
    "provide": 3,
    "regulation": 3,
    "beam": 1,
    "collectors": 1,
    "current collectors": 1,
    "cut": 1,
    "especially in the field of car manufacturing. laser-based cutting processes for trimming and cutting": 1,
    "laser": 1,
    "laser cutting": 1,
    "lasers": 1,
    "process optimization": 1,
    "requirements": 2,
    "technologies": 1,
    "appliance": 1,
    "mdp": 1,
    "mdp time": 1,
    "real time": 2,
    "step": 3,
    "time step": 2,
    "uncertainty": 2,
    "acc": 1,
    "deterministic": 1,
    "driving": 8,
    "ego": 1,
    "like": 2,
    "electric vehicle in the real environment. the recorded data were obtained from 70 real driving trips of a bmw i3": 1,
    "ema": 1,
    "mating": 1,
    "soc estimation": 2,
    "transfer learning": 6,
    "trips": 1,
    "baseload": 1,
    "distribution transformer": 1,
    "filling": 1,
    "mlvf": 1,
    "plug-in electric vehicle (pev)": 1,
    "thispaperpresentsmachinelearningvalley": 1,
    "validation": 1,
    "valley": 1,
    "valley filling": 1,
    "accurateestimationofstateofhealth": 1,
    "dependence": 1,
    "edu": 3,
    "fossil": 1,
    "individual": 1,
    "iscrit": 1,
    "lithium ion": 3,
    "soh estimation": 2,
    "behavior": 4,
    "driver": 2,
    "driver behavior": 1,
    "efficiency": 5,
    "solar": 6,
    "and thus generate a high demand for reliable online diagnosis systems. in order to perform fault-": 1,
    "dakodis": 1,
    "diagnosis": 4,
    "diagnostic": 1,
    "hybrid electric": 2,
    "project": 1,
    "tems": 1,
    "bilevel": 1,
    "coupled": 1,
    "css": 3,
    "electrification": 1,
    "graph": 1,
    "lower": 1,
    "respectively": 2,
    "traveling": 1,
    "upper": 2,
    "battery exchange": 1,
    "electric vehicles": 4,
    "establishment": 1,
    "exchange": 1,
    "exchange stations": 1,
    "mechanism": 1,
    "recharging": 1,
    "wen": 1,
    "ddpg": 2,
    "fcs": 2,
    "objective energy management strategy (ems) based on twin delayed deep deterministic policy gradient (td3)": 1,
    "source": 2,
    "capability": 1,
    "exploration": 2,
    "lsh": 1,
    "per": 1,
    "analysisandmachinelearning.theinternalelectrochemicalrelationshipsbetweenthechargingcurve": 1,
    "curve": 1,
    "eis": 1,
    "impedance": 2,
    "impedance spectrum": 1,
    "lam": 1,
    "spectrum": 1,
    "acs": 1,
    "chemical": 3,
    "formula": 1,
    "multi target": 1,
    "mxene": 1,
    "mxenes": 1,
    "ard": 1,
    "battery electrode": 2,
    "battery electrode production": 1,
    "data-driven model": 1,
    "efficient energy storage": 1,
    "electrode production": 2,
    "exponential": 1,
    "intermediate": 2,
    "kernel": 1,
    "mass load": 1,
    "mass load prediction": 1,
    "stlr": 1,
    "cyber": 4,
    "cyber physical": 1,
    "detect": 1,
    "integration": 2,
    "physical": 4,
    "aggregators": 1,
    "augmented": 1,
    "bus": 1,
    "emission": 1,
    "lagrangian": 1,
    "battery model": 1,
    "matrix": 1,
    "works": 1,
    "assumptions": 1,
    "data driven": 2,
    "driven": 3,
    "fixed": 1,
    "patterns": 1,
    "points": 1,
    "snapshot": 1,
    "subregions": 1,
    "authorized": 1,
    "bccc": 1,
    "bccc cid": 1,
    "cid bccc": 1,
    "downloaded": 1,
    "licensed": 1,
    "limited": 1,
    "restrictions": 1,
    "seoul": 2,
    "utc": 1,
    "xplore": 1,
    "advertisement": 1,
    "amount": 1,
    "building": 1,
    "power grid": 3,
    "request": 1,
    "users": 3,
    "waiting": 1,
    "cross": 1,
    "intelligent": 3,
    "network control": 1,
    "network management": 1,
    "networks": 3,
    "qos": 1,
    "qos requirements": 1,
    "scenarios": 1,
    "cathodematerials": 1,
    "deeplearning": 1,
    "designanddevelopbatterynewmaterialsinhigh": 1,
    "discover": 1,
    "electrochemicalperformanceprediction": 1,
    "groups": 1,
    "inthispaper": 1,
    "ion batteries": 2,
    "materialdesign": 1,
    "metal-ionbatteries": 1,
    "themachinelearningtechniquescanprovideinsightsto": 1,
    "throughputway": 1,
    "todevelopemergingelectrodematerialsandimprovetheperformancesofbatteries": 1,
    "accurateestimationofelectrochemicalstatesplaysa": 1,
    "dimensional": 2,
    "insights": 1,
    "pbm": 1,
    "physics": 2,
    "pseudo": 1,
    "pseudo two": 1,
    "states": 4,
    "two dimensional": 1,
    "bess": 1,
    "buses": 1,
    "csocc": 1,
    "may": 3,
    "overvoltage": 1,
    "penetration": 1,
    "power generation": 1,
    "prev": 1,
    "reverse": 1,
    "evs. it improves efficient energy utilization as well as the": 1,
    "issues": 2,
    "safety": 6,
    "safety and diagnostics": 2,
    "vehicles safety mechanism": 2,
    "well": 2,
    "battery life": 2,
    "index": 1,
    "node": 3,
    "pdn": 2,
    "pdns": 1,
    "reactive": 1,
    "sops": 1,
    "and the accurate estimation of soc is": 1,
    "elm": 2,
    "extreme": 1,
    "extreme learning": 1,
    "relm": 1,
    "sfr": 1,
    "state-of-charge (soc) is the key parameter for battery management": 1,
    "band": 1,
    "band gap": 1,
    "despite extensive studies": 1,
    "electrolytes": 2,
    "gap": 1,
    "garnet": 1,
    "garnets": 1,
    "owing": 1,
    "the development of solid-state batteries (ssbs) has not yet met expectations": 1,
    "type": 1,
    "xgb": 1,
    "efficient": 3,
    "real- ev deployment. it enhances effective energy use and the": 1,
    "even": 1,
    "gasoline": 1,
    "malicious": 2,
    "many": 1,
    "requests": 3,
    "way": 1,
    "electric vehicle (ev)": 1,
    "lithium-ion (li-ion)": 1,
    "naïve": 1,
    "naïve bayes": 1,
    "state of charge (soc)": 1,
    "charger": 2,
    "cluster": 1,
    "interval": 2,
    "publication": 1,
    "travel": 1,
    "vector": 1,
    "aanndd": 1,
    "andthecharge": 1,
    "aregenerated": 1,
    "assumingapositiveelectrodecomposedofrandomlypackedspheres": 1,
    "astheactivematerialparticles": 1,
    "chemicalmodel": 1,
    "dimensionalvirtualstructuresandmachinelearningtechniques": 1,
    "dischargespecificresistancehasbeen": 1,
    "drivenapproachfordesigningthemesoscaleporousstructuresof": 1,
    "including": 1,
    "inthisstudy": 1,
    "ionbatteryelectrodes": 2,
    "li-ionbattery": 1,
    "ooff": 1,
    "ooofff": 1,
    "physico": 1,
    "porousstructure": 1,
    "rrr": 1,
    "tthhee": 1,
    "ttthhheee": 1,
    "usingthree": 1,
    "virtualstructure": 1,
    "wehaveproposedadata": 1,
    "accurately estimating the state-of-charge (soc) and state-of-health (soh) of lithium batteries used in electric": 1,
    "gpr": 1,
    "regression": 2,
    "growing": 1,
    "traction": 1,
    "capacity prediction": 1,
    "ccc": 1,
    "line": 2,
    "pore scale": 1,
    "wiley": 3,
    "www": 1,
    "anfis": 2,
    "different drivecycles areutilized for the trainingand testingstagesof the stateofchargeestimation": 1,
    "input": 5,
    "carbon electrodes": 1,
    "edlcs": 1,
    "elsevier": 1,
    "experimental": 2,
    "micropores": 1,
    "power density": 1,
    "surface": 4,
    "anoveldeepreinforcementlearningalgorithmdeepq-": 1,
    "dyna": 2,
    "optimal control": 1,
    "sionality”inthereinforcementlearningmethod": 1,
    "anomaly": 2,
    "azure": 1,
    "esp": 1,
    "esp ırito": 1,
    "santo": 1,
    "ırito": 1,
    "sumptionweight.finally": 1,
    "thecombineddrivingcycleisselectedtofurtherverifytheeffectivenessofthe": 1,
    "avrfb": 1,
    "charge soc": 1,
    "layers": 2,
    "proper": 1,
    "rfbs": 1,
    "working": 1,
    "calculations": 1,
    "candidates": 1,
    "database": 1,
    "dft": 2,
    "molecular": 2,
    "molecules": 2,
    "oems": 1,
    "organic": 2,
    "organic electrode materials (oems) combine key sustainability and versatility properties with the potential to": 1,
    "drying process": 1,
    "machineandprocessspecificinfluencingfactors.abatteryproductioncaseisusedtodemonstratetheaccu-": 1,
    "advanced long": 1,
    "automotive": 1,
    "classical": 1,
    "classical mechanics": 1,
    "cyber security": 1,
    "mechanics": 1,
    "— electric vehicles": 1,
    "analyze": 1,
    "ensemble": 1,
    "manufactured": 1,
    "ruboost": 1,
    "ann": 3,
    "forecasting": 3,
    "loads": 1,
    "moreover": 1,
    "new": 1,
    "technique": 2,
    "uncoordinated": 1,
    "abnormal": 1,
    "battery-based energy storage system": 1,
    "contents": 1,
    "contents power": 1,
    "dutta": 1,
    "issues abnormal": 1,
    "power quality": 1,
    "quality issues": 1,
    "renewable energy 1. introduction": 1,
    "res": 1,
    "approaches": 1,
    "challenges": 1,
    "digital": 2,
    "learn": 1,
    "presents": 1,
    "theory": 1,
    "ttl": 1,
    "distributed": 1,
    "job": 1,
    "left": 1,
    "parking": 1,
    "parking lots": 1,
    "pdc": 1,
    "resources": 1,
    "as an indispensable component and intermediate bridge": 1,
    "carbon intensity": 1,
    "electrochemical battery as an indispensable component": 1,
    "intensity": 1,
    "lifecycle": 1,
    "stage": 2,
    "brings": 1,
    "dispatch": 1,
    "economic": 1,
    "edge computing": 1,
    "energy dispatch": 1,
    "islanding": 1,
    "microgrids": 1,
    "operational": 1,
    "dnn": 1,
    "forecast": 1,
    "start": 1,
    "transfer": 1,
    "energy efficiency": 1,
    "improve": 1,
    "offs": 1,
    "safety energy": 1,
    "space": 3,
    "torque": 2,
    "trade": 1,
    "whl": 1,
    "around": 1,
    "evse": 1,
    "pricing": 2,
    "surcharge": 1,
    "tcs": 1,
    "typically": 1,
    "without": 1,
    "battery cells": 1,
    "control loop": 1,
    "controllers": 1,
    "cps": 1,
    "loop": 1,
    "investor": 1,
    "maximizing": 1,
    "ppo": 1,
    "revenue": 1,
    "services": 2,
    "stacked": 1,
    "basedneural": 1,
    "classificationsupportvectormachine": 1,
    "fault diagnosis": 2,
    "kernelfunctionparameterswereoptimized": 1,
    "lithiumbattery·faultdiagnosis·supportvectormachine(svm)·multi-classification": 1,
    "proposeafaultdiagnosismethodbasedonamulti": 1,
    "thedependenceondatavolumewhileincreasingthediagnosisaccuracyandspeed": 1,
    "theexperimentalresultsshowedthatourmethodimprovedtrainingspeedsandaccuracycomparedtoproduct": 1,
    "thisapproachdecreases": 1,
    "toovercomethecomplexityoffaultdiagnosisinelectricvehiclebatteriesandthechallengesinobtainingfaultstatedata": 1,
    "becauseofthelimited": 1,
    "charginginfrastructuresandthespatiotemporallyunbalancedchargingdemands": 1,
    "electricvehicle": 2,
    "energysustainability": 1,
    "evcsr": 1,
    "evdriversoftenfailtofindtheproperspotsforcharging": 1,
    "hasbecomeapreferablechoiceinthemoderntransportationsystemduetoitsenvironmentaland": 1,
    "indeed": 1,
    "inmanylargecities": 1,
    "large": 2,
    "charging control": 2,
    "component": 1,
    "deep for ev charging and discharging control [10-11]. in [12]": 1,
    "increases": 1,
    "the": 1,
    "franco": 1,
    "loading": 1,
    "porosity": 1,
    "three": 1,
    "state of charge (soc) estimation": 1,
    "state of health (soh)": 1,
    "microgrid": 1,
    "aiot": 1,
    "charging services": 1,
    "dev": 1,
    "devs": 1,
    "fog": 1,
    "range": 2,
    "sev": 1,
    "vehicle vehicle": 1,
    "battery calendar": 1,
    "calendar loss": 1,
    "feature selection": 1,
    "loss": 2,
    "selection": 1,
    "balancing": 1,
    "battery pack": 2,
    "cell balancing": 1,
    "topologies": 1,
    "cloudlet": 1,
    "concerns": 1,
    "problems": 1,
    "recommender": 1,
    "recommender model": 1,
    "related": 2,
    "thefast": 1,
    "vfl": 1,
    "decision making": 1,
    "energy efficient": 1,
    "making": 1,
    "promising": 1,
    "rule": 1,
    "surrounding": 1,
    "traffic": 2,
    "powered": 2,
    "cmu": 1,
    "cmu edu": 1,
    "experimentation": 1,
    "pittsburgh": 1,
    "robotic": 1,
    "usa": 1,
    "battery data": 1,
    "data set": 2,
    "lithium batteries": 1,
    "manufacturing process": 1,
    "sub": 1,
    "tionship between intermediate product properties and process parameters for individual electrode production": 1,
    "adaptability": 1,
    "four": 1,
    "iop": 1,
    "label": 1,
    "cabin": 1,
    "fan": 1,
    "signals": 2,
    "thermal management": 1,
    "authors": 1,
    "energy hub": 1,
    "hub": 1,
    "ieh": 1,
    "island": 1,
    "islands": 1,
    "fuel cell hybrid electric vehicle": 1,
    "reinforcement reviews. section 2 discusses the system architecture of fuel": 1,
    "electrode thickness": 1,
    "force": 1,
    "lithium battery": 1,
    "lithiumbatteryelectrodemills": 1,
    "rolling": 1,
    "thickness": 2,
    "trendpredictionbasedonsensordataisanimportanttopicinthethicknesscontrolsystemof": 1,
    "circuit": 2,
    "circuit isc": 1,
    "internal": 2,
    "internal short": 1,
    "isc": 1,
    "short": 1,
    "short circuit": 1,
    "tongji": 1,
    "voltage curves": 1,
    "isolated": 1,
    "two stage": 1,
    "joint": 1,
    "soc soe": 1,
    "soe": 1,
    "outages": 1,
    "state charge": 1,
    "arc": 1,
    "arc current": 1,
    "arc fault": 1,
    "convolutional": 1,
    "series": 1,
    "evs charging": 1,
    "overload": 1,
    "capabilities": 1,
    "cevs": 1,
    "considered": 1,
    "false": 1,
    "fdia": 1,
    "injection": 1,
    "peer": 1,
    "enhance": 1,
    "grid charging": 1,
    "advances": 1,
    "characterization": 1,
    "characterization techniques": 1,
    "crystallographic": 1,
    "length": 1,
    "limitations": 1,
    "scales": 1,
    "understanding": 1,
    "cooperative": 1,
    "denoted": 1,
    "probability": 1,
    "uncertain": 1,
    "behaviour": 1,
    "linked": 1,
    "remaining": 1,
    "useful": 1,
    "coating": 3,
    "electrode manufacturing process strongly impacts lithium-ion battery characteristics. the electrode slurry": 1,
    "heterogeneity": 1,
    "manufacturing parameters": 1,
    "achieved": 1,
    "auction": 1,
    "bda": 1,
    "communities": 1,
    "community": 1,
    "double": 2,
    "losers": 1,
    "mpc": 1,
    "optimize": 1,
    "predictive": 1,
    "thenoveltyofthemechanismasakindofmodelpredictivecontrol": 1,
    "vehicletogrid": 1,
    "battery cell": 1,
    "employed during the search included but presentedinthefollowingsection.": 1,
    "evaluation": 1,
    "input variables": 1,
    "presented": 1,
    "review": 1,
    "supervised": 1,
    "terms": 1,
    "timeline 2018–october2022": 1,
    "atoms": 1,
    "elcitra": 1,
    "electrode materials": 1,
    "free": 2,
    "homo": 1,
    "anxiety": 1,
    "behaviors": 2,
    "dynamic": 3,
    "experience": 2,
    "increased": 1,
    "ing": 1,
    "share": 1,
    "significantly": 1,
    "thispaperaimstocracktheindividualevcharging": 1,
    "a real-time": 1,
    "data-driven electric vehicle (evs) routing optimization to achieve energy consumption minimization": 1,
    "ddqn": 1,
    "the lithium-ion battery (lib) is a prominent energy storage technology playing an important role in the future of": 1,
    "charg": 1,
    "environments": 1,
    "soci": 1,
    "control management": 1,
    "dcr": 1,
    "dcrs": 1,
    "incentive": 1,
    "prosumers": 1,
    "δet": 1,
    "acsnano": 1,
    "additive": 1,
    "additives": 1,
    "aqueous zinc-ion batteries": 1,
    "azibs": 1,
    "dendrite": 1,
    "donor number value": 1,
    "electrolyte additive": 1,
    "electrolyte additives": 1,
    "screening": 1,
    "zn metallic anode": 1,
    "ecus": 1,
    "ids": 1,
    "intrusion": 1,
    "measurement": 1,
    "parametric": 1,
    "signal": 1,
    "since": 1,
    "widely": 1,
    "cch": 1,
    "charging navigation": 1,
    "dscrm": 1,
    "route": 1,
    "applications": 1,
    "complex": 1,
    "identification": 1,
    "wavelet": 1,
    "boost converter": 1,
    "factor": 1,
    "output voltage": 1,
    "power factor": 1,
    "power loss": 1,
    "braking": 1,
    "braking energy": 1,
    "energy recovery": 1,
    "motor": 2,
    "prioritized": 1,
    "recovery": 1,
    "replay": 1,
    "batterytemperature": 1,
    "cfd": 1,
    "coefficient": 1,
    "ion battery": 1,
    "maximum": 1,
    "temperatures": 1,
    "inductor": 1,
    "phase": 1,
    "psfb": 1,
    "psfb converter": 1,
    "shifted": 1,
    "author": 1,
    "chen": 1,
    "han": 1,
    "lai": 1,
    "shanghai": 1,
    "supervision": 1,
    "zheng": 1,
    "computer vision · microstructure · deep learning · convolutional neural networks · lithium-ion battery ·": 1,
    "deeplearningcomputervisionmethodswereusedtoevaluatethequalityoflithium": 1,
    "duringthemanufacturingoflithium": 1,
    "enoughtodistinguishinstanceswithdefectsfromthosewithoutdefect": 1,
    "furthermore": 1,
    "image": 1,
    "images": 1,
    "ionbatteryelectrodeforautomateddetectionofmicrostructuraldefectsfromlightmicroscopyimagesofthesectionedcells": 1,
    "itisdifficulttopreventcertaintypesofdefects": 1,
    "microstructure": 1,
    "overallbatteryperformanceandlifespan": 1,
    "particle": 1,
    "sample": 1,
    "theresultsdemonstratethatdeeplearningmodelsareabletolearnaccuraterepresentationsofthemicrostructureimageswell": 1,
    "whichaffectthe": 1,
    "accurate": 1,
    "early": 1,
    "factors": 1,
    "grnn": 1,
    "modelisproposed.basedontheadvantagesofgrnnwithfewerlayersandfewerhyperparameters": 1,
    "expert": 1,
    "failure": 1,
    "processing": 1,
    "vehicle charging": 1,
    "dmp": 1,
    "hess": 1,
    "scs": 1,
    "anxious": 1,
    "battery consumption": 1,
    "decreases": 1,
    "driving range": 1,
    "feeling": 1,
    "range prediction": 1,
    "rangeanxietyofwheneverevneedstobechargedgetsno": 1,
    "mps": 1,
    "reinforcement learning-based (rl-based) energy management strategy (ems) is considered a promising solution": 1,
    "heating": 1,
    "infant": 1,
    "infrared": 1,
    "min": 1,
    "nir": 1,
    "sakazakii": 1,
    "simultaneous": 1,
    "southkorea": 1,
    "treatment": 1,
    "gevs": 1,
    "run": 1,
    "vehicle grid": 1,
    "carrying": 1,
    "carrying capacity": 1,
    "azimuth": 1,
    "base": 1,
    "conductor": 1,
    "dlr": 1,
    "lines": 1,
    "sun": 1,
    "thispaperinvestigatestheimpactofuncoordinated": 1,
    "units": 1,
    "periodic": 1,
    "temporal": 1,
    "oodn": 1,
    "safe": 1,
    "sdrl": 1,
    "charging requests": 1,
    "mcs": 1,
    "mcss": 1,
    "mobile charging": 1,
    "time interval": 1,
    "zone": 1,
    "bat": 1,
    "heuristic": 1,
    "member": 1,
    "rithm": 1,
    "inverse": 1,
    "inverse design": 1,
    "missing": 1,
    "optimizing synthesis parameters is crucial in fabricating an ideal cathode material": 1,
    "sintering": 1,
    "the design space is": 1,
    "hidden": 1,
    "limited types of battery models and non-ignorable parametric uncertainties in reality. ad-": 1,
    "memory": 1,
    "an electrode slurry based on activated carbon": 1,
    "binder": 1,
    "collector": 1,
    "in this article": 1,
    "shear": 1,
    "solvent": 1,
    "suspension": 1,
    "viscosity": 1,
    "which is used to form electrodes of electrochemical": 1,
    "emission regulations for all automobiles have been introduced to reduce global warming caused by vehicles.": 1,
    "ann model": 1,
    "circuit voltage": 1,
    "fullvoltage": 1
  }
}